LAMMPS data file from restart file: timestep = 0,	procs = 1

5 atoms
2 atom types
4 bonds
1 bond types

-10.0 10.0 xlo xhi
-20.0 20.0 ylo yhi
-30.0 30.0 zlo zhi

Masses

1 2.0
2 4.0

Atoms # angle

5 1 1 -1.0 2.0 1.0 0 0 0
1 1 2 8.0 6.0 5.0 0 1 0
3 1 2 4.0 3.0 -2.5 1 0 0
2 1 2 -5.5 12.0 -28.0 0 -1 -1
4 1 1 -3.0 -17.5 10.0 1 0 0

Velocities

5 -2.0 0.0 1.5
1 3.0 0.5 4.0
3 -2.5 1.5 1.5
2 6.0 0.5 2.5
4 1.0 1.5 3.5

Bonds

1 3 4
2 1 2
3 2 3
4 4 5

Angles

1 3 4 5
2 1 2 3
3 2 3 4